 Entering Gaussian System, Link 0=g16
 Input=H2O.com
 Output=H2O.log
 Initial command:
 /fefs/opt/x86_64/Gaussian/g16/l1.exe "/home/yang/DP-ChemTS/virtual_loss_wv_pcclarge/Gau-23386.inp" -scrdir="/home/yang/DP-ChemTS/virtual_loss_wv_pcclarge/"
 Entering Link 1 = /fefs/opt/x86_64/Gaussian/g16/l1.exe PID=     23387.
  
 Copyright (c) 1988-2017, Gaussian, Inc.  All Rights Reserved.
  
 This is part of the Gaussian(R) 16 program.  It is based on
 the Gaussian(R) 09 system (copyright 2009, Gaussian, Inc.),
 the Gaussian(R) 03 system (copyright 2003, Gaussian, Inc.),
 the Gaussian(R) 98 system (copyright 1998, Gaussian, Inc.),
 the Gaussian(R) 94 system (copyright 1995, Gaussian, Inc.),
 the Gaussian 92(TM) system (copyright 1992, Gaussian, Inc.),
 the Gaussian 90(TM) system (copyright 1990, Gaussian, Inc.),
 the Gaussian 88(TM) system (copyright 1988, Gaussian, Inc.),
 the Gaussian 86(TM) system (copyright 1986, Carnegie Mellon
 University), and the Gaussian 82(TM) system (copyright 1983,
 Carnegie Mellon University). Gaussian is a federally registered
 trademark of Gaussian, Inc.
  
 This software contains proprietary and confidential information,
 including trade secrets, belonging to Gaussian, Inc.
  
 This software is provided under written license and may be
 used, copied, transmitted, or stored only in accord with that
 written license.
  
 The following legend is applicable only to US Government
 contracts under FAR:
  
                    RESTRICTED RIGHTS LEGEND
  
 Use, reproduction and disclosure by the US Government is
 subject to restrictions as set forth in subparagraphs (a)
 and (c) of the Commercial Computer Software - Restricted
 Rights clause in FAR 52.227-19.
  
 Gaussian, Inc.
 340 Quinnipiac St., Bldg. 40, Wallingford CT 06492
  
  
 ---------------------------------------------------------------
 Warning -- This program may not be used in any manner that
 competes with the business of Gaussian, Inc. or will provide
 assistance to any competitor of Gaussian, Inc.  The licensee
 of this program is prohibited from giving any competitor of
 Gaussian, Inc. access to this program.  By using this program,
 the user acknowledges that Gaussian, Inc. is engaged in the
 business of creating and licensing software in the field of
 computational chemistry and represents and warrants to the
 licensee that it is not a competitor of Gaussian, Inc. and that
 it will not use this program in any manner prohibited above.
 ---------------------------------------------------------------
  

 Cite this work as:
 Gaussian 16, Revision B.01,
 M. J. Frisch, G. W. Trucks, H. B. Schlegel, G. E. Scuseria, 
 M. A. Robb, J. R. Cheeseman, G. Scalmani, V. Barone, 
 G. A. Petersson, H. Nakatsuji, X. Li, M. Caricato, A. V. Marenich, 
 J. Bloino, B. G. Janesko, R. Gomperts, B. Mennucci, H. P. Hratchian, 
 J. V. Ortiz, A. F. Izmaylov, J. L. Sonnenberg, D. Williams-Young, 
 F. Ding, F. Lipparini, F. Egidi, J. Goings, B. Peng, A. Petrone, 
 T. Henderson, D. Ranasinghe, V. G. Zakrzewski, J. Gao, N. Rega, 
 G. Zheng, W. Liang, M. Hada, M. Ehara, K. Toyota, R. Fukuda, 
 J. Hasegawa, M. Ishida, T. Nakajima, Y. Honda, O. Kitao, H. Nakai, 
 T. Vreven, K. Throssell, J. A. Montgomery, Jr., J. E. Peralta, 
 F. Ogliaro, M. J. Bearpark, J. J. Heyd, E. N. Brothers, K. N. Kudin, 
 V. N. Staroverov, T. A. Keith, R. Kobayashi, J. Normand, 
 K. Raghavachari, A. P. Rendell, J. C. Burant, S. S. Iyengar, 
 J. Tomasi, M. Cossi, J. M. Millam, M. Klene, C. Adamo, R. Cammi, 
 J. W. Ochterski, R. L. Martin, K. Morokuma, O. Farkas, 
 J. B. Foresman, and D. J. Fox, Gaussian, Inc., Wallingford CT, 2016.
 
 ******************************************
 Gaussian 16:  ES64L-G16RevB.01 20-Dec-2017
                10-Apr-2018 
 ******************************************
 %chk=H2O
 -------------------
 #HF/3-21G* Opt Test
 -------------------
 1/18=20,19=15,38=1/1,3;
 2/9=110,12=2,17=6,18=5,40=1/2;
 3/5=5,7=1,11=9,25=1,30=1,71=1/1,2,3;
 4//1;
 5/5=2,38=5/2;
 6/7=2,8=2,9=2,10=2,28=1/1;
 7//1,2,3,16;
 1/18=20,19=15/3(2);
 2/9=110/2;
 99//99;
 2/9=110/2;
 3/5=5,7=1,11=9,25=1,30=1,71=1/1,2,3;
 4/5=5,16=3,69=1/1;
 5/5=2,38=5/2;
 7//1,2,3,16;
 1/18=20,19=15/3(-5);
 2/9=110/2;
 6/7=2,8=2,9=2,10=2,19=2,28=1/1;
 99/9=1/99;
 ---
 H2O
 ---
 Symbolic Z-matrix:
 Charge =  0 Multiplicity = 1
 O                     5.68678   5.94191   7.14211 
 H                     5.86768   6.91227   7.07862 
 H                     5.05513   5.83728   7.91199 
 

 GradGradGradGradGradGradGradGradGradGradGradGradGradGradGradGradGradGrad
 Berny optimization.
 Initialization pass.
                           ----------------------------
                           !    Initial Parameters    !
                           ! (Angstroms and Degrees)  !
 --------------------------                            --------------------------
 ! Name  Definition              Value          Derivative Info.                !
 --------------------------------------------------------------------------------
 ! R1    R(1,2)                  0.9891         estimate D2E/DX2                !
 ! R2    R(1,3)                  1.0013         estimate D2E/DX2                !
 ! A1    A(2,1,3)              105.4996         estimate D2E/DX2                !
 --------------------------------------------------------------------------------
 Trust Radius=3.00D-01 FncErr=1.00D-07 GrdErr=1.00D-07 EigMax=2.50D+02 EigMin=1.00D-04
 Number of steps in this run=     20 maximum allowed number of steps=    100.
 GradGradGradGradGradGradGradGradGradGradGradGradGradGradGradGradGradGrad

                          Input orientation:                          
 ---------------------------------------------------------------------
 Center     Atomic      Atomic             Coordinates (Angstroms)
 Number     Number       Type             X           Y           Z
 ---------------------------------------------------------------------
      1          8           0        5.686778    5.941910    7.142112
      2          1           0        5.867676    6.912267    7.078618
      3          1           0        5.055132    5.837283    7.911992
 ---------------------------------------------------------------------
                    Distance matrix (angstroms):
                    1          2          3
     1  O    0.000000
     2  H    0.989115   0.000000
     3  H    1.001319   1.584402   0.000000
 Stoichiometry    H2O
 Framework group  CS[SG(H2O)]
 Deg. of freedom     3
 Full point group                 CS      NOp   2
 Largest Abelian subgroup         CS      NOp   2
 Largest concise Abelian subgroup C1      NOp   1
                         Standard orientation:                         
 ---------------------------------------------------------------------
 Center     Atomic      Atomic             Coordinates (Angstroms)
 Number     Number       Type             X           Y           Z
 ---------------------------------------------------------------------
      1          8           0        0.000000    0.120484    0.000000
      2          1           0        0.792137   -0.471856   -0.000000
      3          1           0       -0.792137   -0.492018   -0.000000
 ---------------------------------------------------------------------
 Rotational constants (GHZ):         778.2001600         399.4448526         263.9573427
 Standard basis: 3-21G* (6D, 7F)
 There are    11 symmetry adapted cartesian basis functions of A'  symmetry.
 There are     2 symmetry adapted cartesian basis functions of A"  symmetry.
 There are    11 symmetry adapted basis functions of A'  symmetry.
 There are     2 symmetry adapted basis functions of A"  symmetry.
    13 basis functions,    21 primitive gaussians,    13 cartesian basis functions
     5 alpha electrons        5 beta electrons
       nuclear repulsion energy         8.8418378040 Hartrees.
 NAtoms=    3 NActive=    3 NUniq=    3 SFac= 1.00D+00 NAtFMM=   60 NAOKFM=F Big=F
 Integral buffers will be    131072 words long.
 Raffenetti 1 integral format.
 Two-electron integral symmetry is turned on.
 One-electron integrals computed using PRISM.
 NBasis=    13 RedAO= T EigKep=  1.16D-01  NBF=    11     2
 NBsUse=    13 1.00D-06 EigRej= -1.00D+00 NBFU=    11     2
 ExpMin= 1.83D-01 ExpMax= 3.22D+02 ExpMxC= 3.22D+02 IAcc=3 IRadAn=         5 AccDes= 0.00D+00
 Harris functional with IExCor=  205 and IRadAn=       5 diagonalized for initial guess.
 HarFok:  IExCor=  205 AccDes= 0.00D+00 IRadAn=         5 IDoV= 1 UseB2=F ITyADJ=14
 ICtDFT=  3500011 ScaDFX=  1.000000  1.000000  1.000000  1.000000
 FoFCou: FMM=F IPFlag=           0 FMFlag=      100000 FMFlg1=           0
         NFxFlg=           0 DoJE=T BraDBF=F KetDBF=T FulRan=T
         wScrn=  0.000000 ICntrl=       500 IOpCl=  0 I1Cent=   200000004 NGrid=           0
         NMat0=    1 NMatS0=      1 NMatT0=    0 NMatD0=    1 NMtDS0=    0 NMtDT0=    0
 Petite list used in FoFCou.
 Initial guess orbital symmetries:
       Occupied  (A') (A') (A') (A') (A")
       Virtual   (A') (A') (A') (A') (A") (A') (A') (A')
 The electronic state of the initial guess is 1-A'.
 Keep R1 ints in memory in symmetry-blocked form, NReq=807176.
 Requested convergence on RMS density matrix=1.00D-08 within 128 cycles.
 Requested convergence on MAX density matrix=1.00D-06.
 Requested convergence on             energy=1.00D-06.
 No special actions if energy rises.
 SCF Done:  E(RHF) =  -75.5844730215     A.U. after   10 cycles
            NFock= 10  Conv=0.13D-08     -V/T= 2.0034

 **********************************************************************

            Population analysis using the SCF Density.

 **********************************************************************

 Orbital symmetries:
       Occupied  (A') (A') (A') (A') (A")
       Virtual   (A') (A') (A') (A') (A") (A') (A') (A')
 The electronic state is 1-A'.
 Alpha  occ. eigenvalues --  -20.43525  -1.31013  -0.66712  -0.53034  -0.47752
 Alpha virt. eigenvalues --    0.25159   0.34908   1.18084   1.25623   1.78222
 Alpha virt. eigenvalues --    1.87512   2.02142   3.08899
          Condensed to atoms (all electrons):
               1          2          3
     1  O    8.201947   0.257253   0.256867
     2  H    0.257253   0.420961  -0.038021
     3  H    0.256867  -0.038021   0.424893
 Mulliken charges:
               1
     1  O   -0.716068
     2  H    0.359806
     3  H    0.356261
 Sum of Mulliken charges =   0.00000
 Mulliken charges with hydrogens summed into heavy atoms:
               1
     1  O    0.000000
 Electronic spatial extent (au):  <R**2>=             19.0349
 Charge=              0.0000 electrons
 Dipole moment (field-independent basis, Debye):
    X=              0.0185    Y=             -2.4224    Z=             -0.0000  Tot=              2.4224
 Quadrupole moment (field-independent basis, Debye-Ang):
   XX=             -4.0360   YY=             -5.8482   ZZ=             -6.9005
   XY=              0.0290   XZ=              0.0000   YZ=             -0.0000
 Traceless Quadrupole moment (field-independent basis, Debye-Ang):
   XX=              1.5589   YY=             -0.2533   ZZ=             -1.3056
   XY=              0.0290   XZ=              0.0000   YZ=             -0.0000
 Octapole moment (field-independent basis, Debye-Ang**2):
  XXX=              0.0310  YYY=             -1.1827  ZZZ=             -0.0000  XYY=             -0.0166
  XXY=             -1.2779  XXZ=             -0.0000  XZZ=              0.0111  YZZ=             -0.2828
  YYZ=             -0.0000  XYZ=             -0.0000
 Hexadecapole moment (field-independent basis, Debye-Ang**3):
 XXXX=             -5.7443 YYYY=             -5.5244 ZZZZ=             -4.2706 XXXY=             -0.0132
 XXXZ=             -0.0000 YYYX=             -0.0092 YYYZ=             -0.0000 ZZZX=             -0.0000
 ZZZY=             -0.0000 XXYY=             -1.5392 XXZZ=             -1.9424 YYZZ=             -1.6841
 XXYZ=             -0.0000 YYXZ=             -0.0000 ZZXY=             -0.0112
 N-N= 8.841837803974D+00 E-N=-1.973368948277D+02  KE= 7.532499931721D+01
 Symmetry A'   KE= 7.065528639129D+01
 Symmetry A"   KE= 4.669712925919D+00
 Calling FoFJK, ICntrl=      2127 FMM=F ISym2X=1 I1Cent= 0 IOpClX= 0 NMat=1 NMatS=1 NMatT=0.
 ***** Axes restored to original set *****
 -------------------------------------------------------------------
 Center     Atomic                   Forces (Hartrees/Bohr)
 Number     Number              X              Y              Z
 -------------------------------------------------------------------
      1        8          -0.016182586    0.017621817    0.023113457
      2        1          -0.002513151   -0.019107260   -0.000057195
      3        1           0.018695737    0.001485442   -0.023056262
 -------------------------------------------------------------------
 Cartesian Forces:  Max     0.023113457 RMS     0.016197981

 GradGradGradGradGradGradGradGradGradGradGradGradGradGradGradGradGradGrad
 Berny optimization.
 FormGI is forming the generalized inverse of G from B-inverse, IUseBI=4.
 Internal  Forces:  Max     0.029675934 RMS     0.020484827
 Search for a local minimum.
 Step number   1 out of a maximum of   20
 All quantities printed in internal units (Hartrees-Bohrs-Radians)
 Mixed Optimization -- RFO/linear search
 Second derivative matrix not updated -- first step.
 The second derivative matrix:
                          R1        R2        A1
           R1           0.49654
           R2           0.00000   0.47457
           A1           0.00000   0.00000   0.16000
 ITU=  0
     Eigenvalues ---    0.16000   0.47457   0.49654
 RFO step:  Lambda=-2.64268816D-03 EMin= 1.60000000D-01
 Linear search not attempted -- first point.
 Iteration  1 RMS(Cart)=  0.03248056 RMS(Int)=  0.00029359
 Iteration  2 RMS(Cart)=  0.00031620 RMS(Int)=  0.00000005
 Iteration  3 RMS(Cart)=  0.00000003 RMS(Int)=  0.00000000
 ClnCor:  largest displacement from symmetrization is 2.51D-15 for atom     3.
 Variable       Old X    -DE/DX   Delta X   Delta X   Delta X     New X
                                 (Linear)    (Quad)   (Total)
    R1        1.86916  -0.01920   0.00000  -0.03846  -0.03846   1.83069
    R2        1.89222  -0.02968   0.00000  -0.06219  -0.06219   1.83003
    A1        1.84132   0.00309   0.00000   0.01900   0.01900   1.86032
         Item               Value     Threshold  Converged?
 Maximum Force            0.029676     0.000450     NO 
 RMS     Force            0.020485     0.000300     NO 
 Maximum Displacement     0.028121     0.001800     NO 
 RMS     Displacement     0.032597     0.001200     NO 
 Predicted change in Energy=-1.328886D-03
 GradGradGradGradGradGradGradGradGradGradGradGradGradGradGradGradGradGrad

                          Input orientation:                          
 ---------------------------------------------------------------------
 Center     Atomic      Atomic             Coordinates (Angstroms)
 Number     Number       Type             X           Y           Z
 ---------------------------------------------------------------------
      1          8           0        5.678750    5.950255    7.153512
      2          1           0        5.863058    6.898636    7.082099
      3          1           0        5.067778    5.842569    7.897111
 ---------------------------------------------------------------------
                    Distance matrix (angstroms):
                    1          2          3
     1  O    0.000000
     2  H    0.968761   0.000000
     3  H    0.968412   1.553059   0.000000
 Stoichiometry    H2O
 Framework group  CS[SG(H2O)]
 Deg. of freedom     3
 Full point group                 CS      NOp   2
 Largest Abelian subgroup         CS      NOp   2
 Largest concise Abelian subgroup C1      NOp   1
                         Standard orientation:                         
 ---------------------------------------------------------------------
 Center     Atomic      Atomic             Coordinates (Angstroms)
 Number     Number       Type             X           Y           Z
 ---------------------------------------------------------------------
      1          8           0        0.000000    0.115786   -0.000000
      2          1           0        0.776529   -0.463436    0.000000
      3          1           0       -0.776529   -0.462853    0.000000
 ---------------------------------------------------------------------
 Rotational constants (GHZ):         842.3525817         415.8014799         278.3851841
 Standard basis: 3-21G* (6D, 7F)
 There are    11 symmetry adapted cartesian basis functions of A'  symmetry.
 There are     2 symmetry adapted cartesian basis functions of A"  symmetry.
 There are    11 symmetry adapted basis functions of A'  symmetry.
 There are     2 symmetry adapted basis functions of A"  symmetry.
    13 basis functions,    21 primitive gaussians,    13 cartesian basis functions
     5 alpha electrons        5 beta electrons
       nuclear repulsion energy         9.0821694493 Hartrees.
 NAtoms=    3 NActive=    3 NUniq=    3 SFac= 1.00D+00 NAtFMM=   60 NAOKFM=F Big=F
 Integral buffers will be    131072 words long.
 Raffenetti 1 integral format.
 Two-electron integral symmetry is turned on.
 One-electron integrals computed using PRISM.
 NBasis=    13 RedAO= T EigKep=  1.11D-01  NBF=    11     2
 NBsUse=    13 1.00D-06 EigRej= -1.00D+00 NBFU=    11     2
 Initial guess from the checkpoint file:  "H2O.chk"
 B after Tr=    -0.000000   -0.000000   -0.000000
         Rot=    0.999990    0.000000   -0.000000    0.004507 Ang=   0.52 deg.
 Initial guess orbital symmetries:
       Occupied  (A') (A') (A') (A') (A")
       Virtual   (A') (A') (A') (A') (A") (A') (A') (A')
 ExpMin= 1.83D-01 ExpMax= 3.22D+02 ExpMxC= 3.22D+02 IAcc=3 IRadAn=         5 AccDes= 0.00D+00
 Harris functional with IExCor=  205 and IRadAn=       5 diagonalized for initial guess.
 HarFok:  IExCor=  205 AccDes= 0.00D+00 IRadAn=         5 IDoV= 1 UseB2=F ITyADJ=14
 ICtDFT=  3500011 ScaDFX=  1.000000  1.000000  1.000000  1.000000
 FoFCou: FMM=F IPFlag=           0 FMFlag=      100000 FMFlg1=           0
         NFxFlg=           0 DoJE=T BraDBF=F KetDBF=T FulRan=T
         wScrn=  0.000000 ICntrl=       500 IOpCl=  0 I1Cent=   200000004 NGrid=           0
         NMat0=    1 NMatS0=      1 NMatT0=    0 NMatD0=    1 NMtDS0=    0 NMtDT0=    0
 Petite list used in FoFCou.
 Keep R1 ints in memory in symmetry-blocked form, NReq=807176.
 Requested convergence on RMS density matrix=1.00D-08 within 128 cycles.
 Requested convergence on MAX density matrix=1.00D-06.
 Requested convergence on             energy=1.00D-06.
 No special actions if energy rises.
 SCF Done:  E(RHF) =  -75.5859224342     A.U. after    9 cycles
            NFock=  9  Conv=0.70D-08     -V/T= 2.0022
 Calling FoFJK, ICntrl=      2127 FMM=F ISym2X=1 I1Cent= 0 IOpClX= 0 NMat=1 NMatS=1 NMatT=0.
 ***** Axes restored to original set *****
 -------------------------------------------------------------------
 Center     Atomic                   Forces (Hartrees/Bohr)
 Number     Number              X              Y              Z
 -------------------------------------------------------------------
      1        8          -0.001468061    0.003374400    0.002393275
      2        1           0.000904074   -0.001590619   -0.001392473
      3        1           0.000563987   -0.001783781   -0.001000802
 -------------------------------------------------------------------
 Cartesian Forces:  Max     0.003374400 RMS     0.001796834

 GradGradGradGradGradGradGradGradGradGradGradGradGradGradGradGradGradGrad
 Berny optimization.
 Using GEDIIS/GDIIS optimizer.
 FormGI is forming the generalized inverse of G from B-inverse, IUseBI=4.
 Internal  Forces:  Max     0.003493494 RMS     0.002214098
 Search for a local minimum.
 Step number   2 out of a maximum of   20
 All quantities printed in internal units (Hartrees-Bohrs-Radians)
 Mixed Optimization -- RFO/linear search
 Update second derivatives using D2CorX and points    1    2
 DE= -1.45D-03 DEPred=-1.33D-03 R= 1.09D+00
 TightC=F SS=  1.41D+00  RLast= 7.55D-02 DXNew= 5.0454D-01 2.2665D-01
 Trust test= 1.09D+00 RLast= 7.55D-02 DXMaxT set to 3.00D-01
 The second derivative matrix:
                          R1        R2        A1
           R1           0.48774
           R2          -0.00590   0.47784
           A1           0.02502   0.03884   0.15655
 ITU=  1  0
 Use linear search instead of GDIIS.
     Eigenvalues ---    0.14999   0.48145   0.49068
 RFO step:  Lambda=-7.73379281D-05 EMin= 1.49987924D-01
 Quartic linear search produced a step of  0.06328.
 Iteration  1 RMS(Cart)=  0.01218388 RMS(Int)=  0.00010547
 Iteration  2 RMS(Cart)=  0.00010223 RMS(Int)=  0.00000000
 Iteration  3 RMS(Cart)=  0.00000000 RMS(Int)=  0.00000000
 ClnCor:  largest displacement from symmetrization is 1.78D-15 for atom     2.
 Variable       Old X    -DE/DX   Delta X   Delta X   Delta X     New X
                                 (Linear)    (Quad)   (Total)
    R1        1.83069  -0.00128  -0.00243  -0.00120  -0.00364   1.82706
    R2        1.83003  -0.00093  -0.00393   0.00044  -0.00350   1.82654
    A1        1.86032   0.00349   0.00120   0.02219   0.02339   1.88371
         Item               Value     Threshold  Converged?
 Maximum Force            0.003493     0.000450     NO 
 RMS     Force            0.002214     0.000300     NO 
 Maximum Displacement     0.011354     0.001800     NO 
 RMS     Displacement     0.012134     0.001200     NO 
 Predicted change in Energy=-4.602467D-05
 GradGradGradGradGradGradGradGradGradGradGradGradGradGradGradGradGradGrad

                          Input orientation:                          
 ---------------------------------------------------------------------
 Center     Atomic      Atomic             Coordinates (Angstroms)
 Number     Number       Type             X           Y           Z
 ---------------------------------------------------------------------
      1          8           0        5.676249    5.955224    7.157459
      2          1           0        5.866970    6.899675    7.077395
      3          1           0        5.066367    5.836561    7.897868
 ---------------------------------------------------------------------
                    Distance matrix (angstroms):
                    1          2          3
     1  O    0.000000
     2  H    0.966836   0.000000
     3  H    0.966562   1.563443   0.000000
 Stoichiometry    H2O
 Framework group  CS[SG(H2O)]
 Deg. of freedom     3
 Full point group                 CS      NOp   2
 Largest Abelian subgroup         CS      NOp   2
 Largest concise Abelian subgroup C1      NOp   1
                         Standard orientation:                         
 ---------------------------------------------------------------------
 Center     Atomic      Atomic             Coordinates (Angstroms)
 Number     Number       Type             X           Y           Z
 ---------------------------------------------------------------------
      1          8           0       -0.000000    0.113740   -0.000000
      2          1           0        0.781721   -0.455193    0.000000
      3          1           0       -0.781721   -0.454727   -0.000000
 ---------------------------------------------------------------------
 Rotational constants (GHZ):         872.9341840         410.2968523         279.1096364
 Standard basis: 3-21G* (6D, 7F)
 There are    11 symmetry adapted cartesian basis functions of A'  symmetry.
 There are     2 symmetry adapted cartesian basis functions of A"  symmetry.
 There are    11 symmetry adapted basis functions of A'  symmetry.
 There are     2 symmetry adapted basis functions of A"  symmetry.
    13 basis functions,    21 primitive gaussians,    13 cartesian basis functions
     5 alpha electrons        5 beta electrons
       nuclear repulsion energy         9.0969692338 Hartrees.
 NAtoms=    3 NActive=    3 NUniq=    3 SFac= 1.00D+00 NAtFMM=   60 NAOKFM=F Big=F
 Integral buffers will be    131072 words long.
 Raffenetti 1 integral format.
 Two-electron integral symmetry is turned on.
 One-electron integrals computed using PRISM.
 NBasis=    13 RedAO= T EigKep=  1.11D-01  NBF=    11     2
 NBsUse=    13 1.00D-06 EigRej= -1.00D+00 NBFU=    11     2
 Initial guess from the checkpoint file:  "H2O.chk"
 B after Tr=     0.000000    0.000000   -0.000000
         Rot=    1.000000   -0.000000    0.000000   -0.000027 Ang=  -0.00 deg.
 Initial guess orbital symmetries:
       Occupied  (A') (A') (A') (A') (A")
       Virtual   (A') (A') (A') (A') (A") (A') (A') (A')
 Keep R1 ints in memory in symmetry-blocked form, NReq=807176.
 Requested convergence on RMS density matrix=1.00D-08 within 128 cycles.
 Requested convergence on MAX density matrix=1.00D-06.
 Requested convergence on             energy=1.00D-06.
 No special actions if energy rises.
 SCF Done:  E(RHF) =  -75.5859578641     A.U. after    8 cycles
            NFock=  8  Conv=0.28D-08     -V/T= 2.0021
 Calling FoFJK, ICntrl=      2127 FMM=F ISym2X=1 I1Cent= 0 IOpClX= 0 NMat=1 NMatS=1 NMatT=0.
 ***** Axes restored to original set *****
 -------------------------------------------------------------------
 Center     Atomic                   Forces (Hartrees/Bohr)
 Number     Number              X              Y              Z
 -------------------------------------------------------------------
      1        8           0.000299904   -0.000202612   -0.000407656
      2        1          -0.000352344   -0.000269078    0.000394276
      3        1           0.000052440    0.000471690    0.000013380
 -------------------------------------------------------------------
 Cartesian Forces:  Max     0.000471690 RMS     0.000311734

 GradGradGradGradGradGradGradGradGradGradGradGradGradGradGradGradGradGrad
 Berny optimization.
 Using GEDIIS/GDIIS optimizer.
 FormGI is forming the generalized inverse of G from B-inverse, IUseBI=4.
 Internal  Forces:  Max     0.000854578 RMS     0.000538532
 Search for a local minimum.
 Step number   3 out of a maximum of   20
 All quantities printed in internal units (Hartrees-Bohrs-Radians)
 Mixed Optimization -- En-DIIS/RFO-DIIS
 Update second derivatives using D2CorX and points    1    2    3
 DE= -3.54D-05 DEPred=-4.60D-05 R= 7.70D-01
 TightC=F SS=  1.41D+00  RLast= 2.39D-02 DXNew= 5.0454D-01 7.1785D-02
 Trust test= 7.70D-01 RLast= 2.39D-02 DXMaxT set to 3.00D-01
 The second derivative matrix:
                          R1        R2        A1
           R1           0.47315
           R2          -0.01592   0.47336
           A1           0.03195   0.03213   0.19566
 ITU=  1  1  0
 Use linear search instead of GDIIS.
     Eigenvalues ---    0.18803   0.46496   0.48917
 RFO step:  Lambda=-7.19460793D-07 EMin= 1.88031949D-01
 Quartic linear search produced a step of -0.17167.
 Iteration  1 RMS(Cart)=  0.00250202 RMS(Int)=  0.00000353
 Iteration  2 RMS(Cart)=  0.00000299 RMS(Int)=  0.00000000
 Iteration  3 RMS(Cart)=  0.00000000 RMS(Int)=  0.00000000
 ClnCor:  largest displacement from symmetrization is 2.51D-15 for atom     3.
 Variable       Old X    -DE/DX   Delta X   Delta X   Delta X     New X
                                 (Linear)    (Quad)   (Total)
    R1        1.82706  -0.00037   0.00062  -0.00110  -0.00047   1.82658
    R2        1.82654  -0.00008   0.00060  -0.00049   0.00011   1.82665
    A1        1.88371  -0.00085  -0.00402  -0.00033  -0.00434   1.87936
         Item               Value     Threshold  Converged?
 Maximum Force            0.000855     0.000450     NO 
 RMS     Force            0.000539     0.000300     NO 
 Maximum Displacement     0.002423     0.001800     NO 
 RMS     Displacement     0.002503     0.001200     NO 
 Predicted change in Energy=-1.923108D-06
 GradGradGradGradGradGradGradGradGradGradGradGradGradGradGradGradGradGrad

                          Input orientation:                          
 ---------------------------------------------------------------------
 Center     Atomic      Atomic             Coordinates (Angstroms)
 Number     Number       Type             X           Y           Z
 ---------------------------------------------------------------------
      1          8           0        5.676707    5.954504    7.156768
      2          1           0        5.866083    6.899113    7.078408
      3          1           0        5.066796    5.837843    7.897547
 ---------------------------------------------------------------------
                    Distance matrix (angstroms):
                    1          2          3
     1  O    0.000000
     2  H    0.966586   0.000000
     3  H    0.966621   1.560815   0.000000
 Stoichiometry    H2O
 Framework group  CS[SG(H2O)]
 Deg. of freedom     3
 Full point group                 CS      NOp   2
 Largest Abelian subgroup         CS      NOp   2
 Largest concise Abelian subgroup C1      NOp   1
                         Standard orientation:                         
 ---------------------------------------------------------------------
 Center     Atomic      Atomic             Coordinates (Angstroms)
 Number     Number       Type             X           Y           Z
 ---------------------------------------------------------------------
      1          8           0        0.000000    0.114068    0.000000
      2          1           0        0.780407   -0.456242   -0.000000
      3          1           0       -0.780407   -0.456300   -0.000000
 ---------------------------------------------------------------------
 Rotational constants (GHZ):         867.9230871         411.6796019         279.2321664
 Standard basis: 3-21G* (6D, 7F)
 There are    11 symmetry adapted cartesian basis functions of A'  symmetry.
 There are     2 symmetry adapted cartesian basis functions of A"  symmetry.
 There are    11 symmetry adapted basis functions of A'  symmetry.
 There are     2 symmetry adapted basis functions of A"  symmetry.
    13 basis functions,    21 primitive gaussians,    13 cartesian basis functions
     5 alpha electrons        5 beta electrons
       nuclear repulsion energy         9.0984068945 Hartrees.
 NAtoms=    3 NActive=    3 NUniq=    3 SFac= 1.00D+00 NAtFMM=   60 NAOKFM=F Big=F
 Integral buffers will be    131072 words long.
 Raffenetti 1 integral format.
 Two-electron integral symmetry is turned on.
 One-electron integrals computed using PRISM.
 NBasis=    13 RedAO= T EigKep=  1.11D-01  NBF=    11     2
 NBsUse=    13 1.00D-06 EigRej= -1.00D+00 NBFU=    11     2
 Initial guess from the checkpoint file:  "H2O.chk"
 B after Tr=     0.000000    0.000000    0.000000
         Rot=    1.000000   -0.000000   -0.000000   -0.000118 Ang=  -0.01 deg.
 Initial guess orbital symmetries:
       Occupied  (A') (A') (A') (A') (A")
       Virtual   (A') (A') (A') (A') (A") (A') (A') (A')
 Keep R1 ints in memory in symmetry-blocked form, NReq=807176.
 Requested convergence on RMS density matrix=1.00D-08 within 128 cycles.
 Requested convergence on MAX density matrix=1.00D-06.
 Requested convergence on             energy=1.00D-06.
 No special actions if energy rises.
 SCF Done:  E(RHF) =  -75.5859597509     A.U. after    7 cycles
            NFock=  7  Conv=0.51D-08     -V/T= 2.0021
 Calling FoFJK, ICntrl=      2127 FMM=F ISym2X=1 I1Cent= 0 IOpClX= 0 NMat=1 NMatS=1 NMatT=0.
 ***** Axes restored to original set *****
 -------------------------------------------------------------------
 Center     Atomic                   Forces (Hartrees/Bohr)
 Number     Number              X              Y              Z
 -------------------------------------------------------------------
      1        8           0.000005519   -0.000059257   -0.000016772
      2        1           0.000020470    0.000073200   -0.000013295
      3        1          -0.000025989   -0.000013943    0.000030067
 -------------------------------------------------------------------
 Cartesian Forces:  Max     0.000073200 RMS     0.000035825

 GradGradGradGradGradGradGradGradGradGradGradGradGradGradGradGradGradGrad
 Berny optimization.
 Using GEDIIS/GDIIS optimizer.
 FormGI is forming the generalized inverse of G from B-inverse, IUseBI=4.
 Internal  Forces:  Max     0.000076625 RMS     0.000051116
 Search for a local minimum.
 Step number   4 out of a maximum of   20
 All quantities printed in internal units (Hartrees-Bohrs-Radians)
 Mixed Optimization -- En-DIIS/RFO-DIIS
 Swapping is turned off.
 Update second derivatives using D2CorX and points    1    2    3    4
 DE= -1.89D-06 DEPred=-1.92D-06 R= 9.81D-01
 TightC=F SS=  1.41D+00  RLast= 4.37D-03 DXNew= 5.0454D-01 1.3108D-02
 Trust test= 9.81D-01 RLast= 4.37D-03 DXMaxT set to 3.00D-01
 The second derivative matrix:
                          R1        R2        A1
           R1           0.50190
           R2           0.00468   0.48302
           A1           0.04723   0.03983   0.19651
 ITU=  1  1  1  0
     Eigenvalues ---    0.18436   0.48369   0.51339
 En-DIIS/RFO-DIIS/Sim-DIIS IScMMF=       -3 using points:     4    3
 RFO step:  Lambda=-1.52766553D-08.
 DidBck=F Rises=F RFO-DIIS coefs:    0.98942    0.01058
 Iteration  1 RMS(Cart)=  0.00009415 RMS(Int)=  0.00000000
 Iteration  2 RMS(Cart)=  0.00000000 RMS(Int)=  0.00000000
 ClnCor:  largest displacement from symmetrization is 2.51D-15 for atom     3.
 Variable       Old X    -DE/DX   Delta X   Delta X   Delta X     New X
                                 (Linear)    (Quad)   (Total)
    R1        1.82658   0.00008   0.00000   0.00014   0.00015   1.82673
    R2        1.82665   0.00004  -0.00000   0.00008   0.00008   1.82673
    A1        1.87936   0.00002   0.00005  -0.00001   0.00003   1.87940
         Item               Value     Threshold  Converged?
 Maximum Force            0.000077     0.000450     YES
 RMS     Force            0.000051     0.000300     YES
 Maximum Displacement     0.000100     0.001800     YES
 RMS     Displacement     0.000094     0.001200     YES
 Predicted change in Energy=-7.638328D-09
 Optimization completed.
    -- Stationary point found.
                           ----------------------------
                           !   Optimized Parameters   !
                           ! (Angstroms and Degrees)  !
 --------------------------                            --------------------------
 ! Name  Definition              Value          Derivative Info.                !
 --------------------------------------------------------------------------------
 ! R1    R(1,2)                  0.9666         -DE/DX =    0.0001              !
 ! R2    R(1,3)                  0.9666         -DE/DX =    0.0                 !
 ! A1    A(2,1,3)              107.6797         -DE/DX =    0.0                 !
 --------------------------------------------------------------------------------
 GradGradGradGradGradGradGradGradGradGradGradGradGradGradGradGradGradGrad

                          Input orientation:                          
 ---------------------------------------------------------------------
 Center     Atomic      Atomic             Coordinates (Angstroms)
 Number     Number       Type             X           Y           Z
 ---------------------------------------------------------------------
      1          8           0        5.676707    5.954504    7.156768
      2          1           0        5.866083    6.899113    7.078408
      3          1           0        5.066796    5.837843    7.897547
 ---------------------------------------------------------------------
                    Distance matrix (angstroms):
                    1          2          3
     1  O    0.000000
     2  H    0.966586   0.000000
     3  H    0.966621   1.560815   0.000000
 Stoichiometry    H2O
 Framework group  CS[SG(H2O)]
 Deg. of freedom     3
 Full point group                 CS      NOp   2
 Largest Abelian subgroup         CS      NOp   2
 Largest concise Abelian subgroup C1      NOp   1
                         Standard orientation:                         
 ---------------------------------------------------------------------
 Center     Atomic      Atomic             Coordinates (Angstroms)
 Number     Number       Type             X           Y           Z
 ---------------------------------------------------------------------
      1          8           0       -0.000000    0.114068    0.000000
      2          1           0        0.780407   -0.456242    0.000000
      3          1           0       -0.780407   -0.456300    0.000000
 ---------------------------------------------------------------------
 Rotational constants (GHZ):         867.9230871         411.6796019         279.2321664

 **********************************************************************

            Population analysis using the SCF Density.

 **********************************************************************

 Orbital symmetries:
       Occupied  (A') (A') (A') (A') (A")
       Virtual   (A') (A') (A') (A') (A") (A') (A') (A')
 The electronic state is 1-A'.
 Alpha  occ. eigenvalues --  -20.42720  -1.32100  -0.68557  -0.52984  -0.47724
 Alpha virt. eigenvalues --    0.26109   0.36035   1.20667   1.27675   1.78397
 Alpha virt. eigenvalues --    1.86333   2.02479   3.10334
          Condensed to atoms (all electrons):
               1          2          3
     1  O    8.204666   0.264094   0.264092
     2  H    0.264094   0.407925  -0.038449
     3  H    0.264092  -0.038449   0.407935
 Mulliken charges:
               1
     1  O   -0.732852
     2  H    0.366430
     3  H    0.366422
 Sum of Mulliken charges =  -0.00000
 Mulliken charges with hydrogens summed into heavy atoms:
               1
     1  O   -0.000000
 Electronic spatial extent (au):  <R**2>=             18.6186
 Charge=             -0.0000 electrons
 Dipole moment (field-independent basis, Debye):
    X=              0.0000    Y=             -2.3874    Z=             -0.0000  Tot=              2.3874
 Quadrupole moment (field-independent basis, Debye-Ang):
   XX=             -3.9720   YY=             -5.8822   ZZ=             -6.8379
   XY=              0.0001   XZ=             -0.0000   YZ=             -0.0000
 Traceless Quadrupole moment (field-independent basis, Debye-Ang):
   XX=              1.5920   YY=             -0.3182   ZZ=             -1.2738
   XY=              0.0001   XZ=             -0.0000   YZ=             -0.0000
 Octapole moment (field-independent basis, Debye-Ang**2):
  XXX=              0.0001  YYY=             -1.1882  ZZZ=             -0.0000  XYY=             -0.0000
  XXY=             -1.2227  XXZ=             -0.0000  XZZ=              0.0000  YZZ=             -0.3033
  YYZ=             -0.0000  XYZ=              0.0000
 Hexadecapole moment (field-independent basis, Debye-Ang**3):
 XXXX=             -5.3999 YYYY=             -5.2841 ZZZZ=             -4.2009 XXXY=             -0.0000
 XXXZ=             -0.0000 YYYX=             -0.0000 YYYZ=             -0.0000 ZZZX=              0.0000
 ZZZY=             -0.0000 XXYY=             -1.4985 XXZZ=             -1.8617 YYZZ=             -1.6230
 XXYZ=             -0.0000 YYXZ=             -0.0000 ZZXY=             -0.0000
 N-N= 9.098406894478D+00 E-N=-1.979121810674D+02  KE= 7.542515417229D+01
 Symmetry A'   KE= 7.076930566228D+01
 Symmetry A"   KE= 4.655848510008D+00

 Test job not archived.
 1\1\GINC-DL-PCC02\FOpt\RHF\3-21G*\H2O1\ROOT\10-Apr-2018\0\\#HF/3-21G* 
 Opt Test\\H2O\\0,1\O,5.6767074121,5.9545042605,7.1567677607\H,5.866082
 9475,6.8991130699,7.0784076555\H,5.0667960136,5.8378430746,7.897546822
 6\\Version=ES64L-G16RevB.01\State=1-A'\HF=-75.5859598\RMSD=5.083e-09\R
 MSF=3.583e-05\Dipole=-0.3462747,0.6817756,0.5454498\Quadrupole=-0.2917
 464,0.4123524,-0.120606,0.5517772,-0.7247527,-0.4608424\PG=CS [SG(H2O1
 )]\\@


 IF OTHER PEOPLE ARE GOING TO TALK, CONVERSATION IS SIMPLY IMPOSSIBLE.

                                               -- WHISTLER'S PRINCIPLE
 Job cpu time:       0 days  0 hours  0 minutes  4.7 seconds.
 Elapsed time:       0 days  0 hours  0 minutes  4.2 seconds.
 File lengths (MBytes):  RWF=      6 Int=      0 D2E=      0 Chk=      1 Scr=      1
 Normal termination of Gaussian 16 at Tue Apr 10 16:13:30 2018.
